<?xml version="1.0"?>
<VTKFile type="UnstructuredGrid"  version="0.1"  >
<UnstructuredGrid>
<Piece  NumberOfPoints="10779" NumberOfCells="44728">
<Points>
<DataArray  type="Float64"  NumberOfComponents="3"  format="ascii">193.611 167.612 0  235.8631942648016 232.84103434519 0  230.6894123313662 247.6052068804229 0  196.0990192065575 165.9473743195372 0  198.5694214430265 164.2567347126916 0  200.962678758809 162.4592278498697 0  203.2181705907494 160.4932784476269 0  205.2834869545246 158.3299961853976 0  207.13278907618 155.9797310912459 0  208.7838883439661 153.485178220208 0  210.3006728635273 150.9051447929267 0  210.4404210810336 148.1361617565857 0  208.8134255344755 145.7983108049094 0  206.4402240670101 143.9746554196197 0  203.9797848093964 142.2730807990409 0  201.3928915287836 140.7735426630218 0  198.6663858539218 139.5482745704591 0  195.8137695659499 138.6556622984104 0  192.8709498573599 138.1302602725949 0  189.8844723209995 137.9847198459627 0  186.9024604084601 138.2130517972313 0  183.9691459230611 138.8002889918969 0  181.1229944755053 139.7240179600085 0  178.3962308337138 140.9583159704045 0  175.8156616415435 142.4755110378485 0  173.394993154264 144.2360819257302 0  171.1273030964424 146.1890376473738 0  168.9962793920709 148.2901212995494 0  166.9789698671067 150.500818595301 0  165.0509832171324 152.7901643764544 0  163.1934244696526 155.1372373981373 0  161.3949872682005 157.5300168579861 0  159.652350204768 159.9637393935619 0  157.9701561517307 162.4395570410393 0  156.3604294875793 164.9629794580736 0  154.8415780962643 167.5420592284803 0  153.4349694103262 170.184159890268 0  152.1580057182932 172.8916090243456 0  151.034076105658 175.6661360928922 0  150.0539556932485 178.4943721919876 0  149.2023412628654 181.3637577666255 0  148.4646318703485 184.2644879186898 0  147.8281907876039 187.1891362614994 0  147.2874257540487 190.1329637744084 0  146.8476257125706 193.0934286740025 0  146.5222727196983 196.0684614209475 0  146.3308660256743 199.0548549368314 0  146.2972328603141 202.047013718293 0  146.4455548468658 205.0355992894807 0  146.802227150935 208.0065978087783 0  147.3950849888898 210.9398462981574 0  148.256184166817 213.8063190379653 0  149.4162462733985 216.5659338910071 0  150.9034212405898 219.1637693278918 0  152.7120689722706 221.5481468164271 0  154.8260499182829 223.6657321661445 0  157.2088234401745 225.474871330789 0  159.8067634280561 226.9580804734144 0  162.5619361565857 228.1233315051998 0  165.4189084287858 229.0110986555199 0  168.333649583953 229.6881673702985 0  171.2751458635007 230.2417679263266 0  173.954520156738 229.319625619923 0  175.8505304159488 227.15330703875 0  176.4441638013247 224.3643119856137 0  175.9833692867773 221.4064816186424 0  175.5511810401404 218.444402989232 0  175.1729007422696 215.4750487593816 0  174.8796290471066 212.496122507238 0  174.7099315737653 209.5074068975159 0  174.709 206.5139039338976 0  174.888250082804 203.5262128450388 0  175.2506314273831 200.5555586413456 0  175.7821494641257 197.6105855983711 0  176.4596589013456 194.69561289129 0  177.2607799442644 191.811982479947 0  178.1706638558032 188.9607054619525 0  179.1868110164615 186.1456214610231 0  180.3222919912664 183.376847124073 0  181.6062489378997 180.6743277031116 0  183.0775467240655 178.0696710240796 0  184.7702476359586 175.603506953954 0  186.7000271553702 173.3176733119274 0  188.849225993916 171.2356423208539 0  191.1730857375381 169.349179402693 0  233.193 234.149 0  230.4124980583363 235.2027842742 0  227.5552688068159 236.0255832256144 0  224.6448931830362 236.6337105109913 0  221.6988106775455 237.0336642427128 0  218.7319888421296 237.2231373741031 0  215.759722876311 237.1857846583131 0  212.8013216269376 236.9007866653315 0  209.8799577275984 236.3554323688303 0  207.0185858458819 235.552919283608 0  204.2364034290393 234.5083766248775 0  201.5500542340606 233.2375247024385 0  198.9780254624946 231.7493421045008 0  196.5458792545517 230.0428289122939 0  194.2855904308986 228.1152847702094 0  192.2286881034283 225.9723333351091 0  190.3919627936434 223.6375112313532 0  188.7734386371257 221.1457824791342 0  187.3551408270557 218.5340902682919 0  186.1130579824326 215.8335848091559 0  185.0315859615339 213.0646185837651 0  184.1078276928392 210.2390945937182 0  183.3498940598375 207.3647618374549 0  182.7711948166685 204.4491902325173 0  182.3795177264798 201.5026505238602 0  182.1714186238023 198.5373226370773 0  182.1238498651889 195.5646864840779 0  182.1982008491374 192.5922133266635 0  182.3447247729406 189.6221394540977 0  183.9107520189844 187.2257462840805 0  185.892552502232 185.0086125152187 0  187.9126960784048 182.8264310734421 0  189.9795349557433 180.6884737439224 0  192.0989022000392 178.6026380727484 0  194.280174653844 176.5817622193849 0  196.5421912954986 174.6520520890946 0  198.9074431364782 172.8509548363679 0  201.3969498027581 171.2267526892707 0  204.0191904980947 169.8274801130983 0  206.7652410987141 168.6899904258835 0  209.6118057286515 167.8331316832586 0  212.5275922389022 167.2512091993612 0  215.4828655020793 166.9218054436434 0  218.4537659352681 166.7954379036534 0  221.4270752212234 166.8358237405169 0  224.3947038145209 167.0232169323429 0  227.348923345431 167.3602327485561 0  230.2772356613733 167.8739033250283 0  233.1581153387498 168.6058835364643 0  235.9602950281588 169.5952334006922 0  238.6487830102949 170.8602231912688 0  241.1949880049116 172.3914533778674 0  243.5811863583963 174.1618714734939 0  245.7938452797051 176.1449480693102 0  247.8150116145773 178.322493229783 0  249.6137408219049 180.6862682023706 0  251.1464835018111 183.2296397355679 0  252.3719023163023 185.9340130726272 0  253.271329034691 188.7638759951107 0  253.8592791028961 191.6754106932043 0  254.1754075198738 194.6299097460221 0  254.263388665018 197.60071285521 0  254.1528278510207 200.5711077579516 0  253.8586753773957 203.5291245033212 0  253.3854240696515 206.4638382357382 0  252.7331069916878 209.3640063141734 0  251.9004194325704 212.2175984690391 0  250.8860906617632 215.0117661593926 0  249.6855350798661 217.7310256178608 0  248.2942954472918 220.357751623866 0  246.7090130421968 222.8720377449054 0  244.9244343388518 225.2488533312868 0  242.9404860335164 227.4619594387192 0  240.7599845098189 229.4817488299568 0  238.3935697077583 231.2805159383722 0  227.714 247.975 0  224.722284254711 248.1736514342323 0  221.7278808393984 248.2956074561725 0  218.7295982045129 248.3068650880932 0  215.7357780636645 248.161527112576 0  212.7468654414351 247.9385934805689 0  209.7728586403013 247.5576616759867 0  206.8196584721288 247.0502672352178 0  203.8803732861659 246.4582975666436 0  200.9949497797171 245.6435200956698 0  198.1402738278263 244.73472339091 0  195.3326689087243 243.6824971266654 0  192.6036909980376 242.4447618389853 0  189.9165017010721 241.1180751854867 0  187.3171723435618 239.6236480764858 0  184.7755022742628 238.0357268429109 0  182.2732326594746 236.3839180562047 0  179.8269512192107 234.6503124939929 0  177.1781645007136 233.4923126941485 0  174.185401549176 233.3101166216433 0  171.2006491250804 233.0293577960223 0  168.2268017191523 232.6622862336412 0  165.2777904279125 232.1208456578877 0  162.3911059900213 231.3249569179168 0  159.5668795757099 230.3371004971761 0  156.864584501343 229.038090557266 0  154.365676867734 227.394475273391 0  152.0367436099959 225.5227959060624 0  149.939354774049 223.3801840504577 0  148.1872295792745 220.953194921904 0  146.645453690403 218.3919019930252 0  145.3506919918115 215.6875688706469 0  144.3962099855935 212.8483074995291 0  143.6071740624068 209.9607082892864 0  143.0428551027835 207.015989354525 0  142.7190064141743 204.0378375738 0  142.5153348966932 201.0484533393219 0  142.5216127383955 198.0501561423056 0  142.6732849229852 195.0578614088705 0  142.9178047048735 192.0696719547078 0  143.3685320697959 189.1054401258114 0  143.8983169315912 186.1558973023324 0  144.5424312844225 183.2275970797786 0  145.3332545168759 180.3364726631649 0  146.1960206898646 177.4659890495547 0  147.2099743415448 174.6443364335907 0  148.3341651360322 171.8666079800302 0  149.5385601278483 169.120837014232 0  150.9316323120879 166.4660085034678 0  152.3993366270322 163.8535510483326 0  153.9823533116889 161.307203925682 0  155.6948943935182 158.8474894363306 0  157.4697819819262 156.4319611076624 0  159.3621585663305 154.1062920951563 0  161.3286445409259 151.8444791532378 0  163.3490342456402 149.6291121556465 0  165.497562440185 147.5379497549708 0  167.7061717542373 145.5130288441709 0  170.0053043296251 143.5884990590746 0  172.4436741820711 141.8471834232202 0  174.9622361124128 140.2277737547199 0  177.6140334872023 138.8285610560956 0  180.3904552473149 137.7109170558849 0  183.2393818090159 136.7970898299008 0  186.1800539099003 136.2120487304795 0  189.1626851157901 135.9795034747795 0  192.1544111599828 135.9792244328894 0  195.135147370019 136.3033187696359 0  198.0631244576289 136.9270628873696 0  200.9531373235298 137.7140282218868 0  203.7741789813394 138.7296804546095 0  206.5392956618839 139.8845898872002 0  209.2737404556409 141.1139363553932 0  211.9642153834041 142.4372542144164 0  214.6483490442058 143.7733158330815 0  217.326493881108 145.1214129087799 0  220.0165310774681 146.4455929306486 0  222.7136691128137 147.7551089915892 0  225.424861307601 149.0354458128424 0  228.1410284191236 150.305169136866 0  230.8582946262281 151.5725186667802 0  233.5584387672954 152.8759936801164 0  236.234774862377 154.2264607380507 0  238.8828907934693 155.6326284053036 0  241.4528710285502 157.1756297507869 0  243.9749898169293 158.793598846059 0  246.4000447216628 160.556815849709 0  248.7089746102083 162.465320736747 0  250.9414078350587 164.4647322402486 0  252.9871597177618 166.6567004716217 0  254.9007676235235 168.9594095243355 0  256.7011878431748 171.3569733974373 0  258.2286115720934 173.9366518849321 0  259.6201830156164 176.5870499287918 0  260.837789959
[...]
<PointData  Scalars="f_14"> 
<DataArray  type="Float64"  Name="f_14"  format="ascii">1.0000001376754668e+00  0.0000000000000000e+00  8.7463395201245844e-04  1.0000001376754668e+00  1.0000001376754668e+00  1.0000001376754668e+00  1.0000001376754668e+00  1.0000001376754668e+00  1.0000001376754668e+00  1.0000001376754668e+00  1.0000001376754668e+00  1.0000001376754668e+00  1.0000001376754668e+00  1.0000001376754668e+00  1.0000001376754668e+00  1.0000001376754668e+00  1.0000001376754668e+00  1.0000001376754668e+00  1.0000001376754668e+00  1.0000001376754668e+00  1.0000001376754668e+00  1.0000001376754668e+00  1.0000001376754668e+00  1.0000001376754668e+00  1.0000001376754668e+00  1.0000001376754668e+00  1.0000001376754668e+00  1.0000001376754668e+00  1.0000001376754668e+00  1.0000001376754668e+00  1.0000001376754668e+00  1.0000001376754668e+00  1.0000001376754668e+00  1.0000001376754668e+00  1.0000001376754668e+00  1.0000001376754668e+00  1.0000001376754668e+00  1.0000001376754668e+00  1.0000001376754668e+00  1.0000001376754668e+00  1.0000001376754668e+00  1.0000001376754668e+00  1.0000001376754668e+00  1.0000001376754668e+00  1.0000001376754668e+00  1.0000001376754668e+00  1.0000001376754668e+00  1.0000001376754668e+00  1.0000001376754668e+00  1.0000001376754668e+00  1.0000001376754668e+00  1.0000001376754668e+00  1.0000001376754668e+00  1.0000001376754668e+00  1.0000001376754668e+00  1.0000001376754668e+00  1.0000001376754668e+00  1.0000001376754668e+00  1.0000001376754668e+00  1.0000001376754668e+00  1.0000001376754668e+00  1.0000001376754668e+00  1.0000001376754668e+00  1.0000001376754668e+00  1.0000001376754668e+00  1.0000001376754668e+00  1.0000001376754668e+00  1.0000001376754668e+00  1.0000001376754668e+00  1.0000001376754668e+00  1.0000001376754668e+00  1.0000001376754668e+00  1.0000001376754668e+00  1.0000001376754668e+00  1.0000001376754668e+00  1.0000001376754668e+00  1.0000001376754668e+00  1.0000001376754668e+00  1.0000001376754668e+00  1.0000001376754668e+00  1.0000001376754668e+00  1.0000001376754668e+00  1.0000001376754668e+00  1.0000001376754668e+00  1.0000001376754668e+00  0.0000000000000000e+00  0.0000000000000000e+00  0.0000000000000000e+00  0.0000000000000000e+00  0.0000000000000000e+00  0.0000000000000000e+00  0.0000000000000000e+00  0.0000000000000000e+00  0.0000000000000000e+00  0.0000000000000000e+00  0.0000000000000000e+00  0.0000000000000000e+00  0.0000000000000000e+00  0.0000000000000000e+00  0.0000000000000000e+00  0.0000000000000000e+00  0.0000000000000000e+00  0.0000000000000000e+00  0.0000000000000000e+00  0.0000000000000000e+00  0.0000000000000000e+00  0.0000000000000000e+00  0.0000000000000000e+00  0.0000000000000000e+00  0.0000000000000000e+00  0.0000000000000000e+00  0.0000000000000000e+00  0.0000000000000000e+00  0.0000000000000000e+00  0.0000000000000000e+00  0.0000000000000000e+00  0.0000000000000000e+00  0.0000000000000000e+00  0.0000000000000000e+00  0.0000000000000000e+00  0.0000000000000000e+00  0.0000000000000000e+00  0.0000000000000000e+00  0.0000000000000000e+00  0.0000000000000000e+00  0.0000000000000000e+00  0.0000000000000000e+00  0.0000000000000000e+00  0.0000000000000000e+00  0.0000000000000000e+00  0.0000000000000000e+00  0.0000000000000000e+00  0.0000000000000000e+00  0.0000000000000000e+00  0.0000000000000000e+00  0.0000000000000000e+00  0.0000000000000000e+00  0.0000000000000000e+00  0.0000000000000000e+00  0.0000000000000000e+00  0.0000000000000000e+00  0.0000000000000000e+00  0.0000000000000000e+00  0.0000000000000000e+00  0.0000000000000000e+00  0.0000000000000000e+00  0.0000000000000000e+00  0.0000000000000000e+00  0.0000000000000000e+00  0.0000000000000000e+00  0.0000000000000000e+00  0.0000000000000000e+00  0.0000000000000000e+00  0.0000000000000000e+00  0.0000000000000000e+00  0.0000000000000000e+00  0.0000000000000000e+00  0.0000000000000000e+00  0.0000000000000000e+00  0.0000000000000000e+00  1.2136832995739350e-03  1.6914031481639401e-03  2.3777709412798604e-03  3.4085249244261515e-03  4.8644779644786999e-03  7.0265602707122662e-03  1.0258825708988072e-02  1.4889343965078775e-02  2.1587721060066619e-02  3.1081836899265698e-02  4.4045812210036124e-02  6.2685273302439518e-02  8.9252187679523823e-02  1.2581835423253718e-01  1.7628400025131233e-01  2.4797848125856375e-01  3.4674901811192593e-01  4.8651716061468592e-01  6.7773884035911325e-01  8.5260058495981295e-01  9.5545912308592817e-01  9.7939147443299202e-01  9.9069541387006410e-01  9.9612447667810811e-01  9.9827513120720646e-01  9.9919020090204158e-01  9.9953528786953494e-01  9.9981418713943471e-01  9.9991091930245002e-01  9.9996266556114843e-01  9.9996966557664024e-01  9.9997219252941860e-01  9.9998844683563926e-01  9.9999378416193219e-01  9.9999767074278989e-01  9.9999830631555697e-01  9.9999884423622343e-01  9.9999848023523086e-01  9.9999846346733723e-01  9.9999889401574293e-01  9.9999564040200573e-01  9.9999799341586892e-01  1.0000003358160601e+00  9.9999972927364555e-01  9.9999939718294772e-01  9.9999993579758395e-01  9.9999983230733858e-01  9.9999928343689881e-01  9.9999926605331191e-01  1.0000002902221028e+00  1.0000012606407522e+00  9.9999960209440186e-01  1.0000016120294852e+00  1.0000003102474098e+00  1.0000000183239974e+00  9.9999950116114988e-01  9.9999978320164129e-01  9.9999957231250458e-01  9.9999967513817867e-01  9.9999971999911552e-01  9.9999963737769137e-01  9.9999935545596308e-01  1.0000000058679475e+00  9.9999932475706521e-01  9.9999890924121326e-01  9.9999921906424849e-01  9.9999856430123002e-01  9.9999343087459480e-01  9.9996737908888189e-01  9.9983494976654685e-01  9.9923795581398589e-01  9.9690074277478402e-01  9.9107506441382931e-01  9.7076527471884067e-01  9.2839242886835815e-01  8.5927512363143954e-01  7.6418966467481642e-01  6.5578147012798449e-01  5.4761549750657523e-01  4.4784983001102774e-01  3.5698769614120363e-01  2.8018830409135931e-01  2.1674070818511187e-01  1.6655171148557851e-01  1.2507434232562298e-01  9.2509792076417643e-02  6.8290987235918241e-02  4.9412862314461618e-02  3.5446610018428817e-02  2.5454717162030630e-02  1.7838706957232681e-02  1.2490888790506652e-02  8.4780074988963401e-03  5.8216931342649466e-03  3.8986633244918068e-03  2.5755657260864992e-03  1.6880256731438754e-03  1.0658521171059210e-03  7.0308388554849040e-04  4.5528827143815525e-04  2.8335402097205188e-04  1.7739378676206747e-04  1.1501945680545791e-04  7.1780192121690688e-05  4.6510480236720698e-05  2.9846073047810685e-05  2.1304973813037923e-05  1.6150115724206679e-05  1.4117981790695901e-05  1.5355755162341992e-05  1.9184440696783361e-05  2.6793990695073496e-05  3.8355382551836340e-05  5.7160320438501378e-05  8.3382060276660327e-05  1.2034191000385555e-04  1.6844928716625419e-04  2.3037342819140133e-04  2.9229646554093696e-04  3.5250465953594377e-04  4.6353742577452922e-04  6.2962033072676608e-04  0.0000000000000000e+00  0.0000000000000000e+00  0.0000000000000000e+00  0.0000000000000000e+00  0.0000000000000000e+00  0.0000000000000000e+00  0.0000000000000000e+00  0.0000000000000000e+00  0.0000000000000000e+00  0.0000000000000000e+00  0.0000000000000000e+00  0.0000000000000000e+00  0.0000000000000000e+00  0.0000000000000000e+00  0.0000000000000000e+00  0.0000000000000000e+00  0.0000000000000000e+00  0.0000000000000000e+00  0.0000000000000000e+00  0.0000000000000000e+00  0.0000000000000000e+00  0.0000000000000000e+00  0.0000000000000000e+00  0.0000000000000000e+00  0.0000000000000000e+00  0.0000000000000000e+00  0.0000000000000000e+00  0.0000000000000000e+00  0.0000000000000000e+00  0.0000000000000000e+00  0.0000000000000000e+00  0.0000000000000000e+00  0.0000000000000000e+00  0.0000000000000000e+00  0.0000000000000000e+00  0.0000000000000000e+00  0.0000000000000000e+00  0.0000000000000000e+00  0.0000000000000000e+00  0.0000000000000000e+00  0.0000000000000000e+00  0.0000000000000000e+00  0.0000000000000000e+00  0.0000000000000000e+00  0.0000000000000000e+00  0.0000000000000000e+00  0.0000000000000000e+00  0.0000000000000000e+00  0.0000000000000000e+00  0.0000000000000000e+00  0.0000000000000000e+00  0.0000000000000000e+00  0.0000000000000000e+00  0.0000000000000000e+00  0.0000000000000000e+00  0.0000000000000000e+00  0.0000000000000000e+00  0.0000000000000000e+00  0.0000000000000000e+00  0.0000000000000000e+00  0.0000000000000000e+00  0.0000000000000000e+00  0.0000000000000000e+00  0.0000000000000000e+00  0.0000000000000000e+00  0.0000000000000000e+00  0.0000000000000000e+00  0.0000000000000000e+00  0.0000000000000000e+00  0.0000000000000000e+00  0.0000000000000000e+00  0.0000000000000000e+00  0.0000000000000000e+00  0.0000000000000000e+00  0.0000000000000000e+00  0.0000000000000000e+00  0.0000000000000000e+00  0.0000000000000000e+00  0.0000000000000000e+00  0.0000000000000000e+00  0.0000000000000000e+00  0.0000000000000000e+00  0.0000000000000000e+00  0.0000000000000000e+00  0.0000000000000000e+00  0.0000000000000000e+00  0.0000000000000000e+00  0.0000000000000000e+00  0.0000000000000000e+00  0.0000000000000000e+00  0.0000000000000000e+00  0.0000000000000000e+00  0.0000000000000000e+00  0.0000000000000000e+00  0.0000000000000000e+00  0.0000000000000000e+00  0.0000000000000000e+00  0.0000000000000000e+00  0.0000000000000000e+00  0.0000000000000000e+00  0.0000000000000000e+00  0.0000000000000000e+00  0.0000000000000000e+00  0.0000000000000000e+00  0.0000000000000000e+00  0.0000000000000000e+00  0.0000000000000000e+00  0.0000000000000000e+00  0.0000000000000000e+00  0.0000000000000000e+00  0.0000000000000000e+00  0.0000000000000000e+00  0.0000000000000000e+00  0.0000000000000000e+00  0.0000000000000000e+00  0.0000000000000000e+00  0.0000000000000000e+00  0.0000000000000000e+00  0.0000000000000000e+00  0.0000000000000000e+00  0.0000000000000000e+00  0.0000000000000000e+00  0.0000000000000000e+00  0.0000000000000000e+00  0.0000000000000000e+00  0.0000000000000000e+00  0.0000000000000000e+00  0.0000000000000000e+00  0.0000000000000000e+00  0.0000000000000000e+00  0.0000000000000000e+00  0.0000000000000000e+00  0.0000000000000000e+00  0.0000000000000000e+00  0.0000000000000000e+00  0.0000000000000000e+00  0.0000000000000000e+00  0.0000000000000000e+00  0.0000000000000000e+00  0.0000000000000000e+00  0.0000000000000000e+00  0.0000000000000000e+00  0.0000000000000000e+00  0.0000000000000000e+00  0.0000000000000000e+00  0.0000000000000000e+00  0.0000000000000000e+00  0.0000000000000000e+00  0.0000000000000000e+00  0.0000000000000000e+00  0.0000000000000000e+00  0.0000000000000000e+00  0.0000000000000000e+00  0.0000000000000000e+00  0.0000000000000000e+00  0.0000000000000000e+00  0.0000000000000000e+00  0.0000000000000000e+00  0.0000000000000000e+00  0.0000000000000000e+00  0.0000000000000000e+00  0.0000000000000000e+00  0.0000000000000000e+00  0.0000000000000000e+00  0.0000000000000000e+00  0.0000000000000000e+00  0.0000000000000000e+00  0.0000000000000000e+00  0.0000000000000000e+00  0.0000000000000000e+00  0.0000000000000000e+00  0.0000000000000000e+00  0.0000000000000000e+00  0.0000000000000000e+00  0.0000000000000000e+00  0.0000000000000000e+00  0.0000000000000000e+00  0.0000000000000000e+00  0.0000000000000000e+00  0.0000000000000000e+00  0.0000000000000000e+00  0.0000000000000000e+00  0.0000000000000000e+00  0.0000000000000000e+00  0.0000000000000000e+00  0.0000000000000000e+00  0.0000000000000000e+00  0.0000000000000000e+00  0.0000000000000000e+00  0.0000000000000000e+00  0.0000000000000000e+00  0.0000000000000000e+00  0.0000000000000000e+00  0.0000000000000000e+00  0.0000000000000000e+00  0.0000000000000000e+00  0.0000000000000000e+00  0.0000000000000000e+00  0.0000000000000000e+00  0.0000000000000000e+00  0.0000000000000000e+00  0.0000000000000000e+00  0.0000000000000000e+00  0.0000000000000000e+00  0.0000000000000000e+00  0.0000000000000000e+00  0.0000000000000000e+00  0.0000000000000000e+00  0.0000000000000000e+00  0.0000000000000000e+00  0.0000000000000000e+00  0.0000000000000000e+00  0.0000000000000000e+00  0.0000000000000000e+00  0.0000000000000000e+00  0.0000000000000000e+00  0.0000000000000000e+00  0.0000000000000000e+00  0.0000000000000000e+00  0.0000000000000000e+00  0.0000000000000000e+00  0.0000000000000000e+00  0.0000000000000000e+00  0.0000000000000000e+00  0.0000000000000000e+00  0.0000000000000000e+00  0.0000000000000000e+00  0.0000000000000000e+00  0.0000000000000000e+00  0.0000000000000000e+00  0.0000000000000000e+00  0.0000000000000000e+00  0.0000000000000000e+00  0.0000000000000000e+00  0.0000000000000000e+00  0.0000000000000000e+00  0.0000000000000000e+00  0.0000000000000000e+00  0.0000000000000000e+00  0.0000000000000000e+00  0.0000000000000000e+00  0.0000000000000000e+00  0.0000000000000000e+00  0.0000000000000000e+00  0.0000000000000000e+00  0.0000000000000000e+00  0.0000000000000000e+00  0.0000000000000000e+00  0.0000000000000000e+00  0.0000000000000000e+00  0.0000000000000000e+00  0.0000000000000000e+00  0.0000000000000000e+00  0.0000000000000000e+00  0.0000000000000000e+00  0.0000000000000000e+00  0.0000000000000000e+00  0.0000000000000000e+00  0.0000000000000000e+00  0.0000000000000000e+00  0.0000000000000000e+00  0.0000000000000000e+00  0.0000000000000000e+00  0.0000000000000000e+00  0.0000000000000000e+00  0.0000000000000000e+00  0.0000000000000000e+00  0.0000000000000000e+00  0.0000000000000000e+00  0.0000000000000000e+00  0.0000000000000000e+00  0.0000000000000000e+00  0.0000000000000000e+00  0.0000000000000000e+00  0.0000000000000000e+00  0.0000000000000000e+00  0.0000000000000000e+00  0.0000000000000000e+00  0.0000000000000000e+00  0.0000000000000000e+00  0.0000000000000000e+00  0.0000000000000000e+00  0.0000000000000000e+00  0.0000000000000000e+00  0.0000000000000000e+00  0.0000000000000000e+00  0.0000000000000000e+00  0.0000000000000000e+00  0.0000000000000000e+00  0.0000000000000000e+00  0.0000000000000000e+00  0.0000000000000000e+00  0.0000000000000000e+00  0.0000000000000000e+00  0.0000000000000000e+00  0.0000000000000000e+00  0.0000000000000000e+00  0.0000000000000000e+00  0.0000000000000000e+00  0.0000000000000000e+00  0.0000000000000000e+00  0.0000000000000000e+00  0.0000000000000000e+00  0.0000000000000000e+00  0.0000000000000000e+00  0.0000000000000000e+00  0.0000000000000000e+00  0.0000000000000000e+00  0.0000000000000000e+00  0.0000000000000000e+00  0.0000000000000000e+00  0.0000000000000000e+00  0.0000000000000000e+00  0.0000000000000000e+00  0.0000000000000000e+00  0.0000000000000000e+00  0.0000000000000000e+00  0.0000000000000000e+00  0.0000000000000000e+00  0.0000000000000000e+00  0.0000000000000000e+00  0.0000000000000000e+00  0.0000000000000000e+00  0.0000000000000000e+00  0.0000000000000000e+00  0.0000000000000000e+00  0.0000000000000000e+00  0.0000000000000000e+00  0.0000000000000000e+00  0.0000000000000000e+00  0.0000000000000000e+00  0.0000000000000000e+00  0.0000000000000000e+00  0.0000000000000000e+00  0.0000000000000000e+00  0.0000000000000000e+00  0.0000000000000000e+00  0.0000000000000000e+00  0.0000000000000000e+00  0.0000000000000000e+00  0.0000000000000000e+00  0.0000000000000000e+00  0.0000000000000000e+00  0.0000000000000000e+00  0.0000000000000000e+00  0.0000000000000000e+00  0.0000000000000000e+00  0.0000000000000000e+00  0.0000000000000000e+00  0.0000000000000000e+00  0.0000000000000000e+00  0.0000000000000000e+00  0.0000000000000000e+00  0.0000000000000000e+00  0.0000000000000000e+00  0.0000000000000000e+00  0.0000000000000000e+00  0.0000000000000000e+00  0.0000000000000000e+00  0.0000000000000000e+00  0.0000000000000000e+00  0.0000000000000000e+00  0.0000000000000000e+00  0.0000000000000000e+00  0.0000000000000000e+00  0.0000000000000000e+00  0.0000000000000000e+00  0.0000000000000000e+00  0.0000000000000000e+00  0.0000000000000000e+00  0.0000000000000000e+00  0.0000000000000000e+00  0.0000000000000000e+00  0.0000000000000000e+00  0.0000000000000000e+00  0.0000000000000000e+00  0.0000000000000000e+00  0.0000000000000000e+00  0.0000000000000000e+00  0.0000000000000000e+00  0.0000000000000000e+00  0.0000000000000000e+00  0.0000000000000000e+00  0.0000000000000000e+00  0.0000000000000000e+00  0.0000000000000000e+00  0.0000000000000000e+00  0.0000000000000000e+00  0.0000000000000000e+00  0.0000000000000000e+00  0.0000000000000000e+00  0.0000000000000000e+00  0.0000000000000000e+00  0.0000000000000000e+00  0.0000000000000000e+00  0.0000000000000000e+00  0.0000000000000000e+00  0.0000000000000000e+00  0.0000000000000000e+00  0.0000000000000000e+00  0.0000000000000000e+00  0.0000000000000000e+00  0.0000000000000000e+00  0.0000000000000000e+00  0.0000000000000000e+00  0.0000000000000000e+00  0.0000000000000000e+00  0.0000000000000000e+00  0.0000000000000000e+00  0.0000000000000000e+00  0.0000000000000000e+00  0.0000000000000000e+00  0.0000000000000000e+00  0.0000000000000000e+00  0.0000000000000000e+00  0.0000000000000000e+00  0.0000000000000000e+00  0.0000000000000000e+00  0.0000000000000000e+00  0.0000000000000000e+00  0.0000000000000000e+00  0.0000000000000000e+00  0.0000000000000000e+00  0.0000000000000000e+00  0.0000000000000000e+00  0.0000000000000000e+00  0.0000000000000000e+00  0.0000000000000000e+00  0.0000000000000000e+00  0.0000000000000000e+00  0.0000000000000000e+00  0.0000000000000000e+00  0.0000000000000000e+00  0.0000000000000000e+00  0.0000000000000000e+00  0.0000000000000000e+00  0.0000000000000000e+00  0.0000000000000000e+00  0.0000000000000000e+00  0.0000000000000000e+00  0.0000000000000000e+00  0.0000000000000000e+00  0.0000000000000000e+00  0.0000000000000000e+00  0.0000000000000000e+00  0.0000000000000000e+00  0.0000000000000000e+00  0.0000000000000000e+00  0.0000000000000000e+00  0.0000000000000000e+00  0.0000000000000000e+00  0.0000000000000000e+00  0.0000000000000000e+00  0.0000000000000000e+00  0.0000000000000000e+00  0.0000000000000000e+00  0.0000000000000000e+00  0.0000000000000000e+00  0.0000000000000000e+00  0.0000000000000000e+00  0.0000000000000000e+00  0.0000000000000000e+00  0.0000000000000000e+00  0.0000000000000000e+00  0.0000000000000000e+00  0.0000000000000000e+00  0.0000000000000000e+00  0.0000000000000000e+00  0.0000000000000000e+00  0.0000000000000000e+00  0.0000000000000000e+00  0.0000000000000000e+00  0.0000000000000000e+00  0.0000000000000000e+00  0.0000000000000000e+00  0.0000000000000000e+00  0.0000000000000000e+00  0.0000000000000000e+00  0.0000000000000000e+00  0.0000000000000000e+00  0.0000000000000000e+00  0.0000000000000000e+00  0.0000000000000000e+00  0.0000000000000000e+00  0.0000000000000000e+00  0.0000000000000000e+00  0.0000000000000000e+00  0.0000000000000000e+00  0.0000000000000000e+00  0.0000000000000000e+00  0.0000000000000000e+00  0.0000000000000000e+00  0.0000000000000000e+00  0.0000000000000000e+00  0.0000000000000000e+00  0.0000000000000000e+00  0.0000000000000000e+00  0.0000000000000000e+00  0.0000000000000000e+00  0.0000000000000000e+00  0.0000000000000000e+00  0.0000000000000000e+00  0.0000000000000000e+00  0.0000000000000000e+00  0.0000000000000000e+00  0.0000000000000000e+00  0.0000000000000000e+00  0.0000000000000000e+00  0.0000000000000000e+00  0.0000000000000000e+00  0.0000000000000000e+00  0.0000000000000000e+00  0.0000000000000000e+00  0.0000000000000000e+00  0.0000000000000000e+00  0.0000000000000000e+00  0.0000000000000000e+00  0.0000000000000000e+00  0.0000000000000000e+00  0.0000000000000000e+00  0.0000000000000000e+00  0.0000000000000000e+00  0.0000000000000000e+00  0.0000000000000000e+00  0.0000000000000000e+00  0.0000000000000000e+00  0.0000000000000000e+00  0.0000000000000000e+00  0.0000000000000000e+00  0.0000000000000000e+00  0.0000000000000000e+00  0.0000000000000000e+00  0.0000000000000000e+00  0.0000000000000000e+00  0.0000000000000000e+00  0.0000000000000000e+00  0.0000000000000000e+00  0.0000000000000000e+00  0.0000000000000000e+00  0.0000000000000000e+00  0.0000000000000000e+00  0.0000000000000000e+00  0.0000000000000000e+00  0.0000000000000000e+00  0.0000000000000000e+00  0.0000000000000000e+00  0.0000000000000000e+00  0.0000000000000000e